ITEM: TIMESTEP
0
ITEM: NUMBER OF ATOMS
11309
ITEM: BOX BOUNDS pp pp pp
-3.5510000000000119e+01 3.5510000000000119e+01
-3.5510000000000005e+01 3.5510000000000005e+01
-3.5510000000000005e+01 3.5510000000000005e+01
ITEM: ATOMS x y z c_clus 
-35.3018 -33.9794 -33.9311 1 
-33.1703 -32.5175 -33.8307 1 
-34.8366 -32.6857 -31.9592 1 
-28.2027 -34.0664 -34.03 1 
-29.9886 -32.2386 -33.9764 1 
-26.497 -32.204 -33.8931 1 
-28.0122 -32.4986 -32.1795 1 
-25.0599 -32.0116 -31.7872 1 
-23.3561 -33.8146 -31.8533 1 
-21.3726 -33.8395 -33.7692 1 
-21.4034 -32.0516 -31.9376 1 
-23.0911 -32.0826 -33.6321 1 
-19.6702 -32.1258 -33.6921 1 
23.1963 -35.4653 -33.6964 1 
23.0736 -31.877 -33.6364 1 
23.1424 -33.7416 -31.9484 1 
24.9871 -35.4519 -31.9754 1 
26.8473 -33.7327 -32.068 1 
24.8889 -31.9408 -35.4442 1 
24.9228 -33.6884 -33.7061 1 
26.6944 -32.0127 -33.7815 1 
24.9125 -31.9203 -32.0003 1 
26.6464 -35.444 -33.7891 1 
28.6266 -32.0192 -32.081 1 
30.399 -32.0563 -33.8985 1 
30.3727 -33.8497 -32.0597 1 
28.6042 -35.4937 -32.0908 1 
28.6123 -33.7666 -33.8414 1 
32.1956 -33.8345 -33.8834 1 
34.0425 -32.002 -33.9589 1 
32.361 -31.9686 -32.2836 1 
34.0324 -33.9229 -32.1971 1 
-34.6417 -29.3849 -31.9635 1 
-33.002 -30.998 -31.9503 1 
-33.8319 -28.4956 -33.9945 1 
-32.0261 -30.3765 -34.0405 1 
-28.6321 -28.5964 -31.8972 1 
-31.125 -29.2607 -32.0014 1 
-28.2715 -30.3128 -33.9535 1 
-30.1748 -28.4415 -33.9091 1 
-25.0384 -28.6016 -31.9232 1 
-26.8405 -30.2859 -31.8981 1 
-24.93 -30.2453 -33.7214 1 
-24.9038 -28.5092 -35.4876 1 
-26.7783 -28.3972 -33.7018 1 
-23.1475 -30.2228 -35.37 1 
-23.1465 -28.4613 -33.6102 1 
-21.3992 -28.4303 -31.9207 1 
-23.1605 -30.3096 -31.8499 1 
23.0825 -30.0425 -31.9204 1 
24.8681 -30.0842 -33.7834 1 
26.7622 -28.3722 -33.8826 1 
24.8634 -28.3368 -35.4964 1 
24.8853 -28.422 -32.0938 1 
26.7269 -30.118 -32.0256 1 
28.5794 -28.373 -32.2197 1 
30.4113 -30.2317 -32.2584 1 
30.4346 -28.418 -34.044 1 
28.486 -30.1799 -33.8357 1 
32.2105 -30.2033 -34.0333 1 
34.5682 -31.0115 -31.8843 1 
-32.0207 -26.6409 -33.9754 1 
-34.3722 -26.1773 -31.9856 1 
-32.8128 -27.7587 -32.079 1 
-32.1806 -25.0301 -32.0221 1 
-33.9556 -24.8704 -33.8772 1 
-28.5091 -25.0517 -31.964 1 
-28.4971 -26.6594 -33.7098 1 
-30.4005 -26.8189 -31.8974 1 
-30.3379 -24.8306 -33.7401 1 
-24.884 -26.6786 -33.7002 1 
-24.8676 -24.9442 -31.8518 1 
-26.6542 -24.9463 -33.7269 1 
-26.5564 -26.7358 -35.5092 1 
-26.7074 -26.7928 -31.9283 1 
-23.1199 -26.7017 -31.8467 1 
-23.1278 -25.0537 -33.6093 1 
23.1204 -24.733 -33.7274 1 
24.7967 -26.5913 -33.7708 1 
24.9136 -24.701 -31.9922 1 
26.6505 -24.784 -33.7825 1 
26.7678 -26.5859 -32.2241 1 
28.6416 -26.5629 -34.0429 1 
31.5288 -24.3706 -31.8879 1 
34.9616 -24.5274 -31.9548 1 
35.284 -26.6886 -33.8816 1 
33.5317 -24.8809 -33.8427 1 
-33.8486 -21.3367 -33.7162 1 
-32.134 -21.3621 -31.9748 1 
-32.0242 -21.2635 -35.4133 1 
-32.14 -23.1645 -33.8789 1 
-33.8307 -23.2085 -31.9854 1 
-28.5748 -21.465 -35.4423 1 
-30.2956 -21.4885 -33.635 1 
-28.3951 -23.1744 -33.6826 1 
-30.299 -23.2274 -32.0012 1 
-28.4898 -21.3321 -31.9875 1 
-30.2295 -23.1661 -35.3948 1 
-26.7267 -23.2404 -31.956 1 
-25.0414 -21.3245 -32.0284 1 
-26.591 -23.1135 -35.4341 1 
-26.6896 -21.3625 -33.7431 1 
-24.9302 -23.218 -33.7768 1 
-23.1961 -21.385 -33.7009 1 
-23.0979 -23.1233 -31.9227 1 
-21.4278 -21.3565 -31.9015 1 
-21.3547 -21.3885 -35.3108 1 
-21.4499 -23.2167 -33.6975 1 
24.7752 -22.8855 -33.7501 1 
28.2064 -20.9695 -32.0193 1 
30.0003 -21.219 -33.8614 1 
31.7151 -21.1403 -32.0011 1 
35.4593 -21.3349 -35.4942 1 
35.3696 -22.9866 -33.7767 1 
31.7857 -22.9398 -33.7982 1 
35.4269 -21.224 -31.9032 1 
33.5058 -22.7733 -31.9065 1 
33.5639 -21.2038 -33.7274 1 
33.6191 -23.0779 -35.4988 1 
-33.8702 -19.442 -31.9616 1 
-33.8492 -17.7864 -33.6792 1 
-32.0257 -19.554 -33.6426 1 
-33.8357 -19.5156 -35.4851 1 
-32.0571 -17.8218 -31.9302 1 
-32.0801 -17.7712 -35.4568 1 
-30.2584 -17.6621 -33.7817 1 
-28.56 -17.8099 -31.9859 1 
-30.2268 -19.5696 -35.4033 1 
-30.2664 -19.6069 -31.8959 1 
-28.5045 -19.6168 -33.6761 1 
-26.7716 -19.5327 -35.4611 1 
-26.732 -19.675 -31.9964 1 
-24.976 -17.8348 -35.4792 1 
-26.691 -17.7345 -33.7423 1 
-24.8722 -17.8317 -32.0056 1 
-24.9316 -19.6173 -33.7888 1 
-23.1578 -19.6471 -31.9426 1 
-21.4668 -17.787 -31.9677 1 
-23.1961 -19.6116 -35.4918 1 
-21.4436 -19.6396 -33.6234 1 
-23.1178 -17.86 -33.8431 1 
26.5559 -17.6436 -33.6856 1 
28.2954 -17.5439 -31.9158 1 
30.1507 -17.6278 -33.7403 1 
30.053 -19.3366 -32.0171 1 
28.2934 -19.3433 -33.8416 1 
33.6827 -19.5965 -31.9036 1 
31.8674 -19.4716 -33.9075 1 
35.3704 -19.5298 -33.746 1 
35.4696 -17.6785 -35.4633 1 
31.9585 -17.7223 -32.0072 1 
33.5789 -17.68 -33.807 1 
35.3288 -17.7666 -31.9173 1 
-33.7566 -15.9537 -35.4817 1 
-31.9858 -14.2243 -35.464 1 
-33.8581 -15.9612 -31.952 1 
-32.0388 -14.113 -32.0064 1 
-33.7304 -14.1367 -33.7049 1 
-32.0741 -15.9603 -33.7521 1 
-30.2588 -14.2311 -33.7107 1 
-30.3751 -15.9598 -31.947 1 
-28.3589 -14.2104 -31.9986 1 
-28.5139 -15.9774 -33.7826 1 
-26.714 -16.0942 -32.0751 1 
-24.9384 -14.2775 -31.9146 1 
-24.817 -14.1666 -35.4671 1 
-26.6494 -15.9869 -35.4969 1 
-24.8901 -16.0467 -33.7354 1 
-26.6355 -14.237 -33.7962 1 
-23.1511 -16.0299 -35.4508 1 
-23.1833 -16.074 -31.8878 1 
-23.1429 -14.2532 -33.7319 1 
24.8131 -14.1579 -31.8603 1 
26.6736 -14.1854 -33.6761 1 
26.4947 -15.8821 -31.8262 1 
26.5709 -15.9082 -35.5089 1 
24.8252 -14.1492 -35.4871 1 
28.4128 -14.0761 -31.9415 1 
28.4077 -15.8716 -33.7476 1 
30.1551 -15.9252 -31.9395 1 
30.1505 -14.0617 -33.8191 1 
35.3802 -15.9312 -33.8604 1 
31.9097 -14.179 -35.4594 1 
31.9233 -14.2001 -31.9939 1 
31.9547 -15.9074 -33.773 1 
33.7745 -14.1409 -33.7534 1 
33.6577 -15.9833 -31.9205 1 
35.4004 -14.1527 -32 1 
-31.9517 -10.572 -35.4945 1 
-35.4774 -10.6921 -35.4535 1 
-32.0153 -10.6932 -31.9931 1 
-32.0432 -12.3892 -33.7277 1 
-33.8086 -12.4265 -31.9165 1 
-33.7328 -10.6904 -33.7734 1 
-35.4476 -10.598 -31.8791 1 
-30.2175 -10.6801 -33.6841 1 
-28.4724 -10.6766 -31.9462 1 
-30.3077 -12.436 -35.4913 1 
-28.4964 -12.4037 -33.7196 1 
-28.5092 -10.6779 -35.493 1 
-30.2595 -12.4104 -31.9719 1 
-24.8046 -12.3627 -33.726 1 
-24.9225 -10.5885 -31.9411 1 
-26.6465 -12.5484 -32.0229 1 
-26.6802 -10.5717 -33.7133 1 
-24.9218 -10.6782 -35.476 1 
-23.0778 -10.7052 -33.6946 1 
-21.3757 -10.8139 -31.8915 1 
-23.1525 -12.5455 -31.9146 1 
-23.0857 -12.4184 -35.467 1 
24.8957 -10.5443 -32.006 1 
26.5546 -12.3747 -35.5093 1 
24.8793 -12.4314 -33.6764 1 
26.6202 -10.5316 -33.7708 1 
26.5657 -12.3765 -31.9824 1 
28.3648 -10.5758 -32.1197 1 
30.2039 -12.3265 -32.0263 1 
30.168 -10.6058 -33.7438 1 
28.3201 -12.352 -33.7311 1 
30.1207 -12.343 -35.4786 1 
33.6522 -10.558 -33.6713 1 
33.6555 -12.3605 -31.9632 1 
31.9267 -10.6076 -35.4581 1 
33.7002 -12.4479 -35.4608 1 
31.9766 -12.3308 -33.8052 1 
31.9682 -10.5716 -31.9094 1 
35.4679 -12.3458 -33.6706 1 
-31.898 -8.82712 -33.7149 1 
-35.4827 -7.0821 -35.4844 1 
-33.7199 -8.88711 -32.0066 1 
-33.7053 -8.87915 -35.4685 1 
-33.766 -7.10956 -33.67 1 
-35.4827 -8.86829 -33.7481 1 
-31.8784 -7.10774 -31.9639 1 
-30.1539 -8.82375 -35.447 1 
-30.131 -7.12581 -33.7993 1 
-30.2404 -8.91999 -31.9556 1 
-28.4623 -7.20756 -32.0032 1 
-28.3394 -8.88069 -33.7567 1 
-26.5292 -7.14273 -33.7584 1 
-26.7399 -8.91144 -31.8671 1 
-24.8522 -7.25117 -31.9083 1 
-24.8946 -8.87086 -33.665 1 
-23.1332 -8.95434 -35.4757 1 
-23.0738 -8.99743 -31.9261 1 
-21.3853 -8.97967 -33.6343 1 
-9.81833 -7.06522 -33.0507 1 
-6.16603 -7.14818 -33.0322 1 
-4.52286 -7.16551 -34.502 1 
24.8782 -7.03651 -32.0006 1 
24.8144 -8.81519 -33.8305 1 
24.8875 -6.9991 -35.4993 1 
26.5684 -8.82595 -32.0119 1 
26.6593 -7.05567 -33.7537 1 
30.1568 -8.89985 -35.5073 1 
28.4526 -7.05326 -32.0465 1 
28.4269 -8.81967 -33.7168 1 
30.1663 -7.11941 -33.8697 1 
30.1764 -8.85541 -31.9112 1 
32.011 -7.15823 -35.4227 1 
33.7063 -8.83466 -31.8596 1 
32.041 -8.80804 -33.6756 1 
31.9132 -7.03846 -32.0116 1 
35.4819 -7.08712 -32.0509 1 
33.7629 -7.07935 -33.6717 1 
-33.6977 -3.51758 -33.7427 1 
-33.8 -5.3433 -31.9591 1 
-31.9354 -3.61414 -32.0407 1 
-31.9463 -5.44389 -33.7049 1 
-33.684 -5.32703 -35.4215 1 
-31.9628 -3.51669 -35.5081 1 
-30.1366 -5.38242 -31.9431 1 
-30.2191 -3.55268 -33.7218 1 
-28.428 -5.34582 -33.7323 1 
-28.4138 -3.55082 -31.9692 1 
-28.3973 -3.54911 -35.3997 1 
-26.5529 -3.50556 -33.7159 1 
-26.6038 -5.37525 -31.9757 1 
-24.8626 -5.29095 -33.7039 1 
-23.0783 -5.36292 -32.0045 1 
-13.262 -3.49466 -33.2169 1 
-9.86868 -5.35735 -34.736 1 
-11.5519 -5.29397 -33.1342 1 
-9.67805 -3.62877 -33.1379 1 
-11.4822 -3.58988 -34.8377 1 
-7.97771 -5.38306 -33.0129 1 
-7.83669 -3.59543 -34.5666 1 
-6.19855 -5.37623 -34.5652 1 
23.1358 -5.24615 -32.0012 1 
23.1207 -5.26822 -35.5023 1 
21.3988 -3.49205 -35.502 1 
23.115 -3.46408 -33.6712 1 
24.9747 -3.48041 -31.9312 1 
26.6377 -3.43515 -33.8025 1 
26.6392 -5.3075 -31.9813 1 
24.9381 -5.23422 -33.8346 1 
28.3466 -3.50762 -31.9991 1 
30.1786 -5.24789 -32.0251 1 
28.3998 -3.53394 -35.467 1 
28.2722 -5.28828 -33.7779 1 
30.1645 -3.51082 -33.773 1 
33.645 -5.31282 -31.9438 1 
35.4823 -3.50055 -31.9365 1 
33.7383 -3.47074 -33.6933 1 
31.9705 -3.59975 -35.4691 1 
35.4922 -3.52566 -35.4301 1 
31.9605 -3.56001 -31.9642 1 
32.0448 -5.32947 -33.7925 1 
35.4979 -5.3211 -33.7612 1 
-33.6926 1.69796 -32.0338 1 
-33.6493 0.0143858 -33.7696 1 
-35.4891 -0.0545653 -31.986 1 
-35.4516 -1.79986 -33.7324 1 
-33.6764 -1.82252 -31.9966 1 
-31.866 4.90413e-05 -32.0635 1 
-35.4832 1.77205 -33.7807 1 
-33.756 1.83908 -35.4625 1 
-31.9909 -1.73258 -33.8259 1 
-30.1958 -1.73045 -32.02 1 
-30.1257 -0.000153602 -33.7801 1 
-28.3523 1.81556 -33.6829 1 
-28.2729 -1.6591 -33.6467 1 
-30.1116 -1.67948 -35.4799 1 
-28.4293 0.117834 -31.9048 1 
-28.3306 0.0503734 -35.4481 1 
-26.5996 1.78196 -31.8929 1 
-26.6198 1.82389 -35.4731 1 
-26.6038 0.10043 -33.6364 1 
-24.8342 0.0409356 -31.8965 1 
-24.8617 1.78788 -33.745 1 
-26.4935 -1.70427 -31.8609 1 
-26.5195 -1.64162 -35.4256 1 
-19.8151 1.827 -31.8416 1 
-16.5544 0.151467 -33.2807 1 
-14.7722 1.81079 -33.3068 1 
-14.8998 0.081083 -34.9567 1 
-14.8949 -1.61 -33.1878 1 
-13.2309 -1.82055 -34.8847 1 
-11.365 -1.79007 -33.0797 1 
-13.0248 0.0238812 -33.1278 1 
-9.71029 -1.82935 -34.6919 1 
-13.0381 1.86282 -34.8086 1 
-11.4769 -0.1129 -34.79 1 
23.0959 -1.75989 -35.4232 1 
21.3965 0.00856393 -35.4145 1 
23.0892 1.78528 -32.0786 1 
23.086 0.0233937 -33.794 1 
26.7064 1.77432 -35.4699 1 
24.8905 -1.69736 -33.767 1 
24.8273 1.81429 -33.752 1 
26.527 1.8532 -32.0422 1 
26.6556 0.095426 -33.6681 1 
24.9018 -0.010053 -35.4947 1 
26.7285 -1.67163 -31.9968 1 
24.8839 -0.0284052 -31.8803 1 
30.2073 -1.79961 -35.4531 1 
28.4368 0.0774787 -31.9917 1 
30.1615 -1.68011 -32.0075 1 
28.4354 -1.70735 -33.6851 1 
28.4788 0.0234872 -35.5 1 
30.1944 0.106081 -33.7877 1 
30.2919 1.76474 -31.8564 1 
28.4931 1.86352 -33.6447 1 
33.7974 1.72034 -31.951 1 
33.7684 -1.75589 -35.4504 1 
32.0346 -1.66525 -33.687 1 
33.7368 0.0930073 -33.7687 1 
33.716 1.85399 -35.4993 1 
33.7574 -1.70281 -31.9576 1 
32.0575 -0.0751722 -31.94 1 
31.9311 1.79934 -33.7211 1 
-33.7068 5.25573 -35.4311 1 
-31.9845 1.87728 -33.7265 1 
-31.778 5.34579 -33.7375 1 
-35.5099 3.61449 -35.4934 1 
-33.6656 5.34941 -32.0003 1 
-35.4345 3.65199 -31.9822 1 
-35.5043 5.35506 -33.6963 1 
-31.8942 3.61964 -31.9743 1 
-33.6964 3.59044 -33.6971 1 
-30.0042 3.5803 -33.8296 1 
-28.3677 3.55073 -31.9251 1 
-30.1381 5.34982 -31.9789 1 
-28.3295 5.34803 -33.765 1 
-30.1261 1.90119 -31.942 1 
-24.8501 3.62378 -35.3868 1 
-24.8348 5.34825 -33.623 1 
-26.5829 5.42336 -35.4889 1 
-26.7182 5.37321 -31.8833 1 
-24.9418 3.56158 -31.9766 1 
-26.6199 3.50751 -33.7319 1 
-23.1753 5.41096 -31.8716 1 
-21.3663 3.70458 -31.9301 1 
-18.0988 1.92286 -33.4621 1 
-16.4816 1.92844 -35.1287 1 
-16.2846 3.68882 -33.532 1 
-14.5833 3.7326 -35.0778 1 
26.6743 3.6051 -33.7611 1 
26.6245 5.32034 -32.0702 1 
24.806 3.65404 -31.9523 1 
24.9455 3.47849 -35.4804 1 
24.7856 5.26534 -33.6794 1 
26.6083 5.34621 -35.4895 1 
30.223 3.67072 -33.8024 1 
28.4483 5.42038 -33.8093 1 
30.2439 5.46158 -32.011 1 
28.4955 3.54422 -31.9814 1 
33.7723 3.56102 -33.7415 1 
31.9981 3.6464 -32.1003 1 
31.9846 5.42958 -33.7043 1 
31.9939 3.67142 -35.4994 1 
33.7854 5.4062 -31.9997 1 
-33.6731 7.08564 -33.7839 1 
-31.9552 7.02447 -35.4707 1 
-33.7205 8.79447 -31.9665 1 
-35.4343 8.88814 -33.8423 1 
-31.8735 7.17093 -32.0247 1 
-31.8983 8.83416 -33.6548 1 
-30.1053 7.17389 -33.8288 1 
-28.2978 8.84226 -33.7859 1 
-28.4265 7.08704 -31.9039 1 
-29.9843 8.89735 -32.0201 1 
-24.8197 7.15979 -31.872 1 
-24.9147 8.91886 -33.6931 1 
-26.64 7.10391 -33.6964 1 
-26.7255 8.88619 -31.9215 1 
-21.3777 8.89621 -33.6657 1 
-23.0989 8.99707 -31.935 1 
-21.4106 7.12977 -31.8367 1 
23.1117 7.08201 -33.705 1 
23.0954 8.85136 -32.0035 1 
24.8533 7.13402 -31.9425 1 
24.8228 7.1457 -35.4442 1 
26.5878 7.16512 -33.7401 1 
26.5839 8.9083 -31.9132 1 
28.4355 7.03493 -32.0306 1 
28.4026 8.81535 -33.7912 1 
30.101 8.92293 -32.0136 1 
30.1909 7.15245 -33.8633 1 
31.9736 8.86018 -33.8088 1 
33.8238 8.94141 -32.0559 1 
31.9845 7.15422 -31.9832 1 
33.6659 7.18781 -33.8109 1 
35.4549 7.17411 -32.0763 1 
-32.0166 10.6999 -32.0221 1 
-33.6893 10.6035 -33.7582 1 
-35.4248 12.4211 -33.825 1 
-31.8408 10.6613 -35.4368 1 
-33.7436 12.4802 -31.981 1 
-31.9182 12.4752 -33.7583 1 
-33.7027 12.3645 -35.4906 1 
-35.4603 10.6321 -31.9445 1 
-30.1379 12.4557 -35.4996 1 
-28.4759 10.6634 -32.0677 1 
-28.4188 10.6325 -35.4754 1 
-30.2598 10.7063 -33.709 1 
-28.4445 12.3869 -33.771 1 
-30.2407 12.4185 -31.9624 1 
-24.8461 12.4294 -33.6922 1 
-26.617 10.7273 -33.761 1 
-26.6439 12.4728 -31.9821 1 
-24.885 10.5886 -32.0038 1 
-23.1221 12.533 -31.8796 1 
-23.1428 12.3569 -35.4953 1 
23.1141 12.4057 -31.8517 1 
24.9329 10.7176 -31.9567 1 
26.5798 12.4834 -31.8953 1 
24.8744 12.3896 -33.6774 1 
26.5732 10.6238 -33.7419 1 
30.0568 10.678 -33.7653 1 
28.3646 10.6312 -32.0051 1 
28.2817 12.3111 -33.759 1 
30.1699 12.3954 -31.9209 1 
33.7547 12.3713 -32.0824 1 
31.8904 12.4187 -33.751 1 
33.902 10.6674 -33.761 1 
32.0035 10.701 -35.4951 1 
33.8097 12.4014 -35.4304 1 
31.9807 10.7143 -32.0956 1 
-33.6815 16.0365 -35.4814 1 
-35.4122 15.9609 -33.754 1 
-33.6384 14.2572 -33.7266 1 
-35.424 14.197 -35.4678 1 
-35.4611 14.214 -32.0247 1 
-31.9724 14.2627 -31.9271 1 
-33.7011 15.9428 -31.9792 1 
-31.8967 15.9089 -33.7433 1 
-30.1513 14.2191 -33.7986 1 
-28.4678 14.2114 -31.9465 1 
-30.1856 15.9602 -32.0364 1 
-28.4522 15.9099 -33.7971 1 
-26.5397 15.9121 -35.4667 1 
-24.9167 14.3139 -31.7746 1 
-26.6967 15.9233 -31.8781 1 
-24.8835 14.1153 -35.4799 1 
-26.6429 14.132 -33.7199 1 
-24.9126 15.9604 -33.6227 1 
-23.1031 15.8588 -31.9484 1 
23.12 15.9381 -31.9723 1 
24.8436 14.1174 -35.4632 1 
26.5713 14.152 -33.7669 1 
24.9241 14.2018 -31.9127 1 
26.6848 15.9592 -31.9512 1 
24.8207 15.8587 -33.7524 1 
28.3396 14.1384 -31.9811 1 
30.1444 15.9588 -31.9974 1 
30.1229 14.0927 -33.7131 1 
28.3977 15.986 -33.7273 1 
28.2849 14.201 -35.4804 1 
33.7811 14.1923 -33.7383 1 
32.0129 14.2474 -35.4214 1 
32.0545 15.9677 -33.7149 1 
33.7627 16.0658 -31.9417 1 
32.0124 14.254 -32.02 1 
-33.6668 17.7632 -33.7388 1 
-31.9234 17.7178 -32.053 1 
-31.9825 19.5552 -33.7485 1 
-35.4416 17.739 -32.0162 1 
-33.6564 19.4526 -31.954 1 
-35.495 17.7518 -35.4942 1 
-31.9954 17.7298 -35.5088 1 
-28.3726 17.7123 -35.4814 1 
-28.462 19.5291 -33.7463 1 
-30.1815 19.4869 -32.0319 1 
-30.1585 17.7732 -33.7716 1 
-28.3546 17.7098 -31.9379 1 
-26.5754 19.472 -31.9175 1 
-26.6106 17.7888 -33.812 1 
-24.882 17.6724 -31.8834 1 
-23.0717 19.3908 -31.9542 1 
23.1254 17.6866 -33.7164 1 
23.0909 19.5141 -35.4878 1 
23.0775 19.5134 -32.0331 1 
21.3816 17.814 -31.9425 1 
26.6508 17.742 -33.7493 1 
26.5519 19.4968 -31.9678 1 
24.8134 19.5145 -33.7129 1 
24.9009 17.7705 -35.462 1 
24.8443 17.7073 -31.9908 1 
28.4482 17.734 -32.0311 1 
30.1641 19.5086 -31.989 1 
28.3993 19.5651 -33.7333 1 
30.1508 19.5276 -35.5075 1 
30.2114 17.738 -33.7228 1 
28.4627 17.782 -35.4885 1 
32.0407 19.458 -33.6672 1 
33.7761 19.5218 -31.9781 1 
35.4984 19.5273 -33.6984 1 
33.8627 17.6376 -33.7423 1 
31.9227 17.7351 -31.9546 1 
31.9711 17.6341 -35.4619 1 
-31.911 21.2611 -31.9343 1 
-31.9205 22.9843 -33.8308 1 
-33.7434 21.33 -33.7646 1 
-33.6318 23.088 -32.0596 1 
-28.305 22.9868 -33.8932 1 
-30.1889 22.9526 -32.1126 1 
-28.3798 21.3259 -32.001 1 
-30.2249 21.2478 -33.7885 1 
-26.5344 21.2057 -33.7982 1 
-26.586 22.9948 -32.0374 1 
23.1181 23.0392 -31.8984 1 
26.6022 23.067 -31.9176 1 
26.682 21.3205 -33.6762 1 
24.889 23.0078 -33.7286 1 
24.8382 21.2684 -31.9791 1 
24.8445 21.2361 -35.477 1 
26.6022 23.0067 -35.494 1 
30.2174 22.949 -31.9631 1 
28.414 22.9262 -33.6838 1 
28.4431 21.3148 -35.4781 1 
30.1546 21.2371 -33.6419 1 
28.3226 21.2261 -31.9199 1 
30.1563 23.1602 -35.4784 1 
33.7672 21.194 -33.7004 1 
31.9828 21.2806 -31.988 1 
35.4754 23.0148 -33.8043 1 
35.4728 21.2584 -31.9865 1 
33.7834 23.0864 -32.0437 1 
31.8924 22.965 -33.7719 1 
-35.4468 26.5649 -33.8139 1 
-35.4273 24.8421 -32.0377 1 
-31.891 24.7142 -32.0804 1 
-33.6414 24.8409 -33.8142 1 
-33.526 26.4987 -31.9731 1 
-31.806 26.5437 -33.8344 1 
-28.2944 24.699 -32.1339 1 
-30.1165 24.6646 -33.8565 1 
-30.1031 26.4632 -32.052 1 
-28.3799 26.4511 -33.7745 1 
-26.4805 26.3243 -32.0239 1 
23.1107 24.7624 -33.7348 1 
21.3942 26.5363 -33.6977 1 
23.1159 26.5758 -31.9764 1 
24.9207 24.8278 -31.9403 1 
24.8003 24.9036 -35.4937 1 
26.615 26.6151 -35.4446 1 
26.5929 24.9082 -33.7484 1 
26.6885 26.6382 -31.9848 1 
30.1548 24.82 -33.7845 1 
28.3448 24.8424 -35.4663 1 
28.406 26.6047 -33.8013 1 
30.2285 26.5311 -31.9874 1 
28.4255 24.8585 -32.0108 1 
33.7758 26.5413 -31.9295 1 
31.9727 26.503 -33.7993 1 
31.9805 24.7382 -32.0111 1 
33.7057 24.82 -33.8195 1 
-35.508 31.7565 -35.4734 1 
-35.311 31.7425 -32.0781 1 
-33.5366 29.9442 -32.0969 1 
-31.7884 29.9856 -33.8136 1 
-31.7821 28.2348 -32.0298 1 
-35.448 30.0209 -33.771 1 
-33.5396 31.738 -33.8944 1 
-33.6024 28.2468 -33.7558 1 
-35.4378 28.1995 -32.0213 1 
-30.0223 28.2883 -33.9829 1 
-29.9179 29.9412 -32.0494 1 
-30.0065 31.717 -34.0223 1 
-28.2876 30.0679 -33.8925 1 
-31.7325 31.7164 -32.1997 1 
-28.2881 28.1855 -32.1492 1 
-26.5148 28.2019 -33.7938 1 
23.1785 30.2036 -31.9678 1 
21.4041 30.2392 -33.794 1 
23.0778 28.3381 -33.8384 1 
26.672 28.3207 -33.7713 1 
26.6398 30.1283 -31.9735 1 
24.8971 28.3723 -32.0323 1 
24.8455 30.1218 -33.7606 1 
30.1984 30.107 -32.0539 1 
30.2232 28.434 -33.8298 1 
28.3939 30.1373 -33.8468 1 
28.489 28.4606 -31.9588 1 
31.9688 28.3197 -32.062 1 
33.7796 28.2018 -33.7737 1 
33.7233 30.0257 -32.0174 1 
32.0114 30.1801 -33.862 1 
-35.38 33.5272 -33.7789 1 
-35.2123 35.2867 -32.1231 1 
-33.5229 35.3964 -33.9093 1 
-33.4478 33.3446 -32.1607 1 
-29.8109 33.237 -32.0837 1 
-28.1603 33.401 -34.0084 1 
-29.8051 35.0522 -33.9644 1 
-31.7335 33.4993 -33.8792 1 
-26.4031 33.3311 -32.1857 6827 
-26.4667 35.1731 -33.8984 1 
-21.5085 35.491 -31.9126 1 
21.4352 31.9923 -32.0304 1 
23.2077 33.7578 -35.462 1 
21.4179 33.8802 -33.6802 1 
21.3806 32.0445 -35.4383 1 
23.1722 33.7914 -31.9346 1 
23.239 31.9501 -33.7629 1 
24.8644 31.9738 -32.0013 1 
26.727 31.9006 -33.6936 1 
24.9558 33.7856 -33.6789 1 
26.7157 33.7863 -31.9636 1 
26.6868 33.7218 -35.4959 1 
30.3069 31.8428 -33.8013 1 
28.4831 32.0006 -35.4284 1 
28.4918 33.8037 -33.8138 1 
28.4585 31.9874 -31.9801 1 
30.2816 33.685 -32.1214 1 
30.3351 35.3867 -33.8997 1 
32.1731 35.3486 -32.1309 1 
32.0802 31.8489 -32.0887 1 
33.8167 31.8676 -33.8753 1 
33.9464 35.3827 -33.8729 1 
33.9601 33.5574 -32.0212 1 
32.1235 33.6892 -33.9069 1 
-28.5426 -31.9894 -28.1219 1 
-26.798 -33.8073 -28.1675 1 
-25.0755 -32.0529 -28.2973 1 
-26.9269 -32.0649 -30.0076 1 
-25.0504 -33.8755 -30.0579 1 
-23.1485 -33.8189 -28.2765 1 
-21.3896 -32.0129 -28.4884 1 
-23.1878 -32.0763 -30.1453 1 
-21.4049 -33.777 -30.2004 1 
21.4519 -33.6545 -30.1693 1 
21.3841 -35.3735 -28.4627 1 
23.1908 -35.5094 -30.3094 1 
23.1442 -31.8969 -30.2732 1 
24.9223 -33.6912 -30.2074 1 
24.8205 -35.4416 -28.4965 1 
26.7079 -33.6817 -28.4159 1 
24.928 -31.8657 -28.6087 1 
26.8327 -35.3804 -30.2325 1 
26.8403 -31.9141 -30.2469 1 
30.3949 -33.6004 -28.3429 1 
28.6944 -33.7357 -30.3274 1 
28.6658 -31.9536 -28.6423 1 
28.5805 -35.3986 -28.4348 1 
30.4826 -32.012 -30.4858 1 
34.3832 -34.3359 -28.4513 1 
32.2748 -33.8461 -30.4681 1 
34.433 -32.7285 -30.124 1 
32.7202 -32.7447 -28.4345 1 
-32.1156 -28.3319 -28.0708 1 
-34.4706 -29.3168 -28.4219 1 
-34.7317 -31.0691 -30.1404 1 
-32.8144 -29.2969 -30.248 1 
-28.5567 -28.4894 -28.262 1 
-30.3999 -28.484 -29.9689 1 
-28.6302 -30.093 -29.994 1 
-26.776 -30.3062 -28.3011 1 
-24.8971 -30.2852 -30.0625 1 
-24.921 -28.424 -28.354 1 
-26.6406 -28.5092 -30.1378 1 
-23.1976 -30.2392 -28.2243 1 
-23.1173 -28.5692 -30.1542 1 
-21.3982 -30.3245 -30.1707 1 
-19.7449 -30.1725 -28.3715 1 
21.3952 -28.3308 -28.4039 1 
23.0847 -28.3071 -30.2664 1 
26.8457 -30.1213 -28.6396 1 
26.6667 -28.2911 -30.41 1 
24.8813 -30.1608 -30.2533 1 
25.0007 -28.3088 -28.6266 1 
28.6389 -30.1376 -30.4581 1 
34.6073 -31.091 -28.3773 1 
34.6748 -29.3663 -30.1254 1 
32.7961 -31.0973 -30.0985 1 
-32.1121 -26.6564 -30.0287 1 
-33.9163 -24.844 -30.0977 1 
-33.9907 -26.5676 -28.1844 1 
-34.5009 -27.7349 -30.1979 1 
-32.0701 -24.9231 -28.3434 1 
-28.5616 -24.905 -28.4555 1 
-28.5247 -26.7466 -30.1794 1 
-30.2738 -24.9428 -30.2866 1 
-30.2033 -26.6648 -28.3113 1 
-24.9553 -24.8926 -28.474 1 
-26.7261 -26.6745 -28.4084 1 
-26.7576 -24.9493 -30.0752 1 
-24.9517 -26.6658 -30.1189 1 
-23.1006 -24.8931 -30.1306 1 
-23.0872 -26.6028 -28.3774 1 
23.0972 -26.5582 -28.5457 1 
24.9568 -26.5338 -30.3864 1 
31.6572 -24.348 -28.2665 1 
35.2965 -24.678 -28.1857 1 
34.8834 -26.0839 -30.0907 1 
33.2875 -24.3754 -30.145 1 
34.7775 -27.7579 -28.409 1 
33.1568 -26.0656 -28.2579 1 
-31.9715 -21.3825 -28.3946 1 
-33.7478 -23.1003 -28.2915 1 
-33.918 -21.3823 -30.1623 1 
-32.1055 -23.0954 -30.1424 1 
-30.1633 -21.3969 -30.189 1 
-28.4416 -23.0551 -30.2789 1 
-28.445 -21.4121 -28.4265 1 
-30.2853 -23.1409 -28.4417 1 
-26.7379 -21.2884 -30.1866 1 
-24.8697 -22.9738 -30.171 1 
-26.7032 -23.1137 -28.4706 1 
-24.8832 -21.3811 -28.4103 1 
-21.3974 -23.1452 -30.1596 1 
-23.1158 -21.2728 -30.2119 1 
-21.4456 -21.2802 -28.4472 1 
31.7153 -21.1185 -28.3199 1 
28.1171 -22.6251 -30.1878 1 
29.8558 -22.7394 -28.358 1 
31.5794 -22.7182 -30.1232 1 
28.2131 -21.0026 -28.3303 1 
29.9084 -20.9781 -30.2594 1 
35.4005 -21.2807 -28.2203 1 
33.5856 -22.8318 -28.2916 1 
35.3621 -22.9703 -30.0747 1 
33.6389 -21.2628 -30.0792 1 
-32.0389 -19.6104 -30.2064 1 
-33.8824 -17.8245 -30.1136 1 
-33.8401 -19.5934 -28.3366 1 
-32.0972 -17.8798 -28.4052 1 
-28.5278 -19.5695 -30.2441 1 
-28.4295 -17.8246 -28.4067 1 
-30.2407 -17.8263 -30.1012 1 
-30.2107 -19.6198 -28.4073 1 
-24.9427 -19.567 -30.2301 1 
-26.6886 -19.6102 -28.4699 1 
-25.0332 -17.7723 -28.4985 1 
-26.8365 -17.8165 -30.2788 1 
-23.2795 -19.5496 -28.4036 1 
-23.1935 -17.7497 -30.0927 1 
-21.4275 -17.8336 -28.4177 1 
-21.4468 -19.4962 -30.1071 1 
26.5394 -17.5966 -30.1736 1 
31.7445 -17.6493 -28.399 1 
28.3492 -17.6811 -28.231 1 
28.2433 -19.2901 -30.1734 1 
30.1351 -17.6349 -30.1862 1 
30.0422 -19.3668 -28.375 1 
33.5796 -17.7965 -30.1377 1 
35.3499 -19.5473 -30.0673 1 
35.4325 -17.7706 -28.3398 1 
31.8243 -19.5067 -30.1765 1 
33.6416 -19.4476 -28.3527 1 
-32.077 -15.9607 -30.1628 1 
-33.7678 -14.1612 -30.1916 1 
-33.822 -16.0116 -28.3844 1 
-31.9384 -14.3577 -28.3767 1 
-30.2457 -14.2642 -30.1908 1 
-28.4867 -14.2099 -28.411 1 
-30.2561 -16.1429 -28.3794 1 
-28.4152 -15.975 -30.2621 1 
-25.0941 -15.9742 -30.1643 1 
-26.7836 -16.0256 -28.3189 1 
-24.9789 -14.2813 -28.3118 1 
-26.7163 -14.2127 -30.0906 1 
-23.197 -16.0739 -28.4205 1 
-21.3579 -14.2542 -28.2281 1 
-21.3921 -15.9314 -30.05 1 
-23.2097 -14.1688 -30.1681 1 
26.6113 -14.0586 -30.1292 1 
24.8233 -14.0849 -28.3948 1 
26.5848 -15.8651 -28.4078 1 
30.0127 -15.8529 -28.3304 1 
28.3617 -14.0429 -28.3827 1 
30.1539 -14.0839 -30.1154 1 
28.4073 -15.8421 -30.1814 1 
33.6879 -14.1612 -30.2129 1 
31.8508 -15.8374 -30.2183 1 
31.8208 -14.1866 -28.3274 1 
35.4539 -14.2183 -28.4428 1 
33.6571 -15.9435 -28.4864 1 
35.3781 -16.0188 -30.2562 1 
-35.4463 -10.6424 -28.3652 1 
-32.0143 -12.3859 -30.0799 1 
-33.7229 -12.4894 -28.3714 1 
-33.7334 -10.6779 -30.1769 1 
-31.9567 -10.7122 -28.3492 1 
-30.2731 -10.6089 -30.1813 1 
-30.174 -12.4518 -28.3666 1 
-28.5443 -12.4092 -30.1806 1 
-28.5256 -10.5948 -28.446 1 
-24.9298 -12.3967 -30.1605 1 
-26.6406 -12.3668 -28.4119 1 
-24.8796 -10.6201 -28.3206 1 
-26.6941 -10.6763 -30.1977 1 
-23.2144 -10.6597 -30.0908 1 
-23.2106 -12.4273 -28.3631 1 
24.8136 -10.5216 -28.4044 1 
26.6274 -10.6395 -30.144 1 
26.5322 -12.3487 -28.3544 1 
30.1305 -12.3712 -28.4187 1 
30.1286 -10.5862 -30.1899 1 
28.351 -12.3013 -30.1191 1 
28.3571 -10.6428 -28.3139 1 
31.9514 -12.3456 -30.2553 1 
33.7539 -10.6164 -30.1377 1 
31.8286 -10.5953 -28.3991 1 
33.7586 -12.3032 -28.3837 1 
35.4439 -12.3856 -30.094 1 
-35.4527 -7.08727 -28.4698 1 
-35.4513 -8.91917 -30.2032 1 
-32.0711 -8.87178 -30.2465 1 
-33.7221 -7.09351 -30.2568 1 
-33.7774 -8.79347 -28.4301 1 
-31.9276 -7.10063 -28.5014 1 
-30.1711 -7.10947 -30.1722 1 
-30.2704 -8.82119 -28.4366 1 
-28.4522 -7.07528 -28.4974 1 
-28.4981 -8.93983 -30.1779 1 
-26.64 -8.84955 -28.3608 1 
-24.8421 -7.09149 -28.4296 1 
-24.9583 -8.91058 -30.1721 1 
-26.5794 -7.1339 -30.1686 1 
-23.1381 -7.19904 -30.1313 1 
-23.1011 -8.88641 -28.2799 1 
-14.6098 -7.05546 -28.1854 1 
-9.43647 -7.15516 -29.8068 1 
-11.1174 -7.15781 -28.1676 1 
-11.3916 -6.98325 -31.3761 1 
-12.975 -7.03081 -29.8239 1 
-7.82024 -7.10962 -31.3622 1 
23.1094 -8.852 -28.4064 1 
23.0957 -6.99329 -30.2584 1 
24.8092 -7.09809 -28.4016 1 
26.73 -7.09876 -30.2886 1 
24.8511 -8.81487 -30.1831 1 
26.5885 -8.83443 -28.4662 1 
30.0471 -8.87336 -28.3969 1 
28.3974 -8.84317 -30.1721 1 
30.2457 -7.11612 -30.198 1 
28.3752 -7.02567 -28.4868 1 
33.6605 -7.06749 -30.216 1 
31.9605 -7.1166 -28.4128 1 
31.9568 -8.8884 -30.1212 1 
33.7022 -8.91181 -28.4322 1 
-33.7636 -3.53742 -30.2456 1 
-35.4272 -3.5741 -28.4773 1 
-31.9257 -3.56503 -28.4868 1 
-31.8832 -5.30387 -30.2432 1 
-33.7378 -5.31026 -28.5578 1 
-30.1327 -3.57415 -30.2372 1 
-28.3735 -5.36985 -30.2559 1 
-30.1563 -5.29505 -28.4691 1 
-28.4373 -3.59156 -28.4693 1 
-26.5761 -3.53945 -30.2074 1 
-24.8831 -3.55928 -28.3916 1 
-26.5939 -5.35469 -28.4487 1 
-21.4028 -3.50318 -28.3081 1 
-23.1274 -5.40354 -28.332 1 
-23.1339 -3.56963 -30.1185 1 
-18.048 -3.47542 -28.0818 1 
-14.7209 -5.30881 -29.7547 1 
-13.1584 -5.18314 -31.4532 1 
-14.5707 -3.52046 -28.0645 1 
-16.3813 -3.49434 -29.7704 1 
-14.8645 -3.45569 -31.5456 1 
-11.2725 -3.61637 -31.3907 1 
-12.9052 -3.57794 -29.6933 1 
-12.8585 -5.37353 -28.0462 1 
-11.2065 -5.35692 -29.6864 1 
-9.52095 -5.28098 -31.3125 1 
23.1244 -3.61059 -30.2447 1 
26.7006 -3.47557 -30.1879 1 
24.834 -3.58098 -28.5197 1 
26.5767 -5.35573 -28.3747 1 
24.9852 -5.34991 -30.1866 1 
30.1059 -3.53438 -30.2995 1 
28.506 -3.55282 -28.4413 1 
28.3546 -5.36688 -30.1562 1 
30.2357 -5.35206 -28.3529 1 
31.9226 -3.6225 -28.4763 1 
33.7269 -5.37106 -28.4924 1 
31.8598 -5.32409 -30.1744 1 
33.721 -3.54572 -30.1473 1 
35.4577 -5.33736 -30.2223 1 
-32.006 -0.14928 -28.5534 1 
-33.7006 1.79216 -28.5151 1 
-33.6675 -0.0609594 -30.316 1 
-31.9882 -1.86037 -30.2407 1 
-35.4334 1.81617 -30.2271 1 
-35.4623 0.0265551 -28.4695 1 
-31.967 1.81771 -30.2691 1 
-35.4794 -1.72778 -30.1559 1 
-33.7761 -1.81026 -28.3993 1 
-28.3744 -1.72329 -30.2375 1 
-28.4342 1.70551 -30.0947 1 
-28.3451 -0.0547067 -28.4548 1 
-30.1017 -1.67465 -28.4773 1 
-30.2511 -5.39423e-05 -30.2074 1 
-30.2325 1.69303 -28.4589 1 
-26.6532 0.0257773 -30.1582 1 
-26.6179 -1.80202 -28.4298 1 
-24.9703 0.030489 -28.423 1 
-24.79 -1.69111 -30.1416 1 
-24.7971 1.84486 -30.1063 1 
-21.5357 0.044936 -28.1513 1 
-23.1911 -1.76971 -28.3519 1 
-17.9749 0.110538 -28.0854 1 
-18.129 -1.70321 -29.8926 1 
-18.1211 0.174835 -31.5767 1 
-19.8156 0.0702428 -29.9189 1 
-19.6628 -1.65093 -28.1042 1 
-16.3826 1.81065 -31.5524 1 
-16.3334 0.0875209 -29.7849 1 
-16.5036 -1.63075 -31.4847 1 
-14.7354 0.0726639 -31.5267 1 
-14.7013 -1.7173 -29.8063 1 
-16.4528 -1.69602 -28.1075 1 
-13.0363 -1.72268 -31.4403 1 
23.1609 1.79245 -28.4264 1 
23.1108 0.0183129 -30.1339 1 
23.1468 -1.72032 -28.4241 1 
24.8121 1.86172 -30.2561 1 
24.8404 -1.72556 -30.2926 1 
26.6834 -1.6999 -28.4357 1 
24.8609 0.111128 -28.3115 1 
26.6164 0.129217 -30.0962 1 
30.1959 1.74853 -28.4103 1 
30.2141 -1.69131 -28.4522 1 
30.1489 0.0921804 -30.2807 1 
28.3489 -1.6455 -30.1523 1 
28.3969 1.86333 -30.141 1 
28.4833 0.0638277 -28.4216 1 
33.804 1.79904 -28.4747 1 
33.7572 0.0365498 -30.2948 1 
31.9306 -1.81182 -30.2546 1 
32.0804 1.76316 -30.1751 1 
33.7827 -1.75094 -28.4226 1 
31.9435 -0.0304045 -28.5811 1 
-31.9077 5.37013 -30.1617 1 
-33.695 3.58137 -30.2718 1 
-31.8807 3.57845 -28.437 1 
-33.6693 5.29094 -28.47 1 
-35.45 3.57032 -28.386 1 
-30.0956 5.32934 -28.3738 1 
-28.4705 5.38283 -30.1295 1 
-28.3703 3.60479 -28.4047 1 
-30.1219 3.55543 -30.1458 1 
-26.7171 3.52541 -30.161 1 
-24.9675 5.33989 -30.0987 1 
-26.7152 5.3686 -28.4315 1 
-26.5582 1.90428 -28.3665 1 
-24.9247 3.72713 -28.3227 1 
-21.4343 3.69466 -28.3065 1 
-21.3932 5.40038 -30.0104 1 
-23.158 3.66513 -30.1282 1 
-23.1546 5.47817 -28.3156 1 
-23.1895 1.93435 -28.3147 1 
-21.371 1.8869 -30.0641 1 
-19.75 1.89022 -28.0883 1 
-18.0454 1.87759 -29.812 1 
-17.9676 3.61896 -31.7514 1 
26.6496 5.29701 -28.4872 1 
24.9506 3.59316 -28.4943 1 
26.7272 3.56465 -30.2302 1 
26.7091 1.87413 -28.3774 1 
24.9327 5.34931 -30.2322 1 
28.4713 5.30312 -30.2169 1 
30.2765 3.55192 -30.2272 1 
28.4429 3.59721 -28.4804 1 
30.2756 5.36839 -28.4143 1 
33.7685 3.50543 -30.2383 1 
32.093 5.2628 -30.2492 1 
35.4914 5.3229 -30.2281 1 
33.8099 5.23689 -28.4932 1 
32.0577 3.47828 -28.4566 1 
-33.6965 7.0992 -30.258 1 
-33.751 8.86044 -28.5356 1 
-31.9961 7.08321 -28.4445 1 
-31.9721 8.8643 -30.1815 1 
-35.4946 8.89208 -30.2363 1 
-30.2001 8.86715 -28.4058 1 